VARIABLES = "x", "y", "density", "u-vel", "v-vel", "pressure", "temperature", "a", "e" 
ZONE T="Flow Field", I=6, J=6, F=BLOCK
VARLOCATION=([3-9]=CELLCENTERED)
0
0.6
1.2
1.8
2.4
3
0
0.6
1.2
1.8
2.4
3
0
0.6
1.2
1.8
2.4
3
0
0.6
1.2
1.8
2.4
3
0
0.6
1.2
1.8
2.4
3
0
0.6
1.2
1.8
2.4
3
0
0
0.16077
0.321539
0.321539
0.321539
0.15
0.15
0.278616
0.407231
0.407231
0.407231
0.3
0.3
0.396462
0.492923
0.492923
0.492923
0.45
0.45
0.514308
0.578616
0.578616
0.578616
0.6
0.6
0.632154
0.664308
0.664308
0.664308
0.75
0.75
0.75
0.75
0.75
0.75
0.01
0.0102402
0.0101352
0.00997234
0.00998909
0.00999999
0.0104411
0.0106555
0.0100624
0.0100049
0.00999999
0.0104586
0.0106956
0.010104
0.0100143
0.00999999
0.0104525
0.0106804
0.0101095
0.0100171
0.00999999
0.0104598
0.0106972
0.0101162
0.0100193
4000.01
4015.85
4030.01
4010.03
4002.56
4000.02
3974.57
3963.49
3994.82
3999.21
4000.02
3978.05
3968.34
3995.82
3999.54
4000.02
3982.12
3974.42
3997.02
3999.79
4000.02
3986.34
3980.8
3998.39
4000.08
0.000118203
-156.023
-257.802
-38.4333
-5.72103
3.64653e-05
37.3254
55.2168
5.36075
0.295093
-4.35906e-07
40.3182
61.9003
11.5147
1.91344
-2.30311e-05
41.8267
64.921
13.8543
2.72271
-0.00030445
53.1158
86.1056
20.2636
4.12589
7319.36
-5.51578e+07
5.06146e+17
-0.00305066
7991.82
-5.51576e+07
-6.05047e+15
-0.00304954
7319.36
-6.09059e+07
-1.86654e+15
-0.00304945
7319.36
-5.51578e+07
1.56764e+09
-0.0030493
7319.36
-5.51578e+07
7.24692e+14
0.1529
7319.36
-5.51578e+07
9.57974e+15
-0.642687
7694.82
2515.79
-4805.15
-4.04617e+23
-1.01243e-10
2650.41
-4805.14
-5.78191e+19
-1.01205e-10
2515.79
-5161.02
-5.5026e+18
-1.01202e-10
2515.79
-4805.15
-3.4191e+06
-1.01198e-10
2515.79
-4805.15
-8.29468e+17
4.76255e-09
2515.79
-4805.15
-1.44944e+20
-2.1329e-08
2531.07
924.595
-nan
-nan
-nan
948.825
-nan
-nan
-nan
924.595
-nan
-nan
-nan
924.595
-nan
-nan
-nan
924.595
-nan
-nan
0.00138348
924.595
-nan
-nan
-nan
927.296
2.49997e+06
-3.44529e+06
-2.90111e+26
-7.25903e-08
2.84929e+06
-3.44529e+06
-4.14563e+22
-7.25635e-08
2.49997e+06
-3.70045e+06
-3.94537e+21
-7.25614e-08
2.49997e+06
-3.44529e+06
-2.4515e+09
-7.25582e-08
2.49997e+06
-3.44529e+06
-5.94729e+20
3.41471e-06
2.49997e+06
-3.44529e+06
-1.03925e+23
-1.52927e-05
2.52988e+06
